128  
4    

1    
  0.0035355339059327   0.0035355339059327   0.0000000000000000
  -0.0327278200   -0.0291968800   -0.0000039100
  -0.0001035000    0.0000196500   -0.0000001200
  -0.0000050100   -0.0004501800   -0.0000029500
  -0.0000142200   -0.0000143400    0.0000011200
  -0.0000076700   -0.0000189100    0.0000014900
  -0.0000111400    0.0000249200   -0.0000021500
   0.0000901600    0.0000373500    0.0000016700
   0.0000421400    0.0000245000   -0.0000021300
  -0.0001116700    0.0001467800    0.0002212500
   0.0000292600    0.0000052700    0.0000263600
  -0.0001061200    0.0001503700   -0.0002211100
   0.0000281700    0.0000010000   -0.0000193300
  -0.0001124000    0.0001471200   -0.0002209600
   0.0000291100    0.0000047000   -0.0000247200
  -0.0001094600    0.0001503200    0.0002208100
   0.0000295500    0.0000003900    0.0000202400
   0.0002754700    0.0001853800    0.0003727100
   0.0002845400    0.0001877900   -0.0003731600
  -0.0000040300    0.0000844700    0.0000146600
  -0.0000079300    0.0000825500   -0.0000103100
   0.0002732300    0.0001842700   -0.0003711300
   0.0002881800    0.0001844600    0.0003729300
  -0.0000066500    0.0000862700   -0.0000140900
  -0.0000034800    0.0000854700    0.0000107300
   0.0006493800    0.0006823000    0.0000008700
  -0.0000849700   -0.0000670500    0.0000012200
  -0.0000972900   -0.0000640600   -0.0000001500
   0.0006555500    0.0006812500   -0.0000021700
   0.0000068700    0.0000002600   -0.0000023200
  -0.0000188300   -0.0000271100   -0.0000013300
  -0.0000182400   -0.0000293900   -0.0000003300
   0.0000068100   -0.0000018600    0.0000017600
   0.0059975900    0.0055836200    0.0062967800
   0.0000549000   -0.0000007100    0.0000223000
   0.0000671100    0.0000886500    0.0001576500
  -0.0000213500   -0.0000036000    0.0000381600
   0.0000578700    0.0000591400   -0.0002727500
  -0.0000551300    0.0000409000   -0.0000428300
  -0.0000185600   -0.0000069800    0.0000008600
  -0.0000092000   -0.0000313400   -0.0000304800
  -0.0000084200   -0.0000309600   -0.0000305500
  -0.0000199800   -0.0000071100    0.0000012400
  -0.0000534300    0.0000406600   -0.0000415800
   0.0000569800    0.0000577300   -0.0002687800
  -0.0000188900   -0.0000028000    0.0000370800
   0.0000662400    0.0000888200    0.0001569400
   0.0000556300   -0.0000001200    0.0000219100
   0.0058955200    0.0054874400    0.0061523400
  -0.0000189100   -0.0000025900   -0.0000370000
   0.0000663100    0.0000881800   -0.0001568300
   0.0000556200   -0.0000001500   -0.0000220000
   0.0058959400    0.0054874000   -0.0061526300
  -0.0000083700   -0.0000310600    0.0000302900
  -0.0000198400   -0.0000067700   -0.0000014400
  -0.0000535800    0.0000405800    0.0000415700
   0.0000570400    0.0000579700    0.0002689300
   0.0000580000    0.0000594900    0.0002725500
  -0.0000550200    0.0000410000    0.0000428000
  -0.0000188400   -0.0000069000   -0.0000012000
  -0.0000095200   -0.0000314600    0.0000302900
   0.0059976800    0.0055833400   -0.0062966700
   0.0000544400   -0.0000008700   -0.0000223700
   0.0000672300    0.0000884500   -0.0001574200
  -0.0000210400   -0.0000034200   -0.0000380500
   0.0000602000   -0.0000181700    0.0000257100
  -0.0000200100   -0.0000408800    0.0000543600
   0.0000281900    0.0000108300   -0.0000111500
  -0.0000586500   -0.0000439800    0.0000356100
   0.0001465800    0.0000454100   -0.0000681900
   0.0000172100   -0.0008945800    0.0002111300
   0.0000257900    0.0000136300    0.0000212300
  -0.0000294400    0.0003034200   -0.0000583200
  -0.0000287900    0.0003037700   -0.0000566100
   0.0000238100    0.0000146000    0.0000217700
   0.0000097100   -0.0008928100    0.0001976400
   0.0001431900    0.0000448900   -0.0000669800
  -0.0000583900   -0.0000439000    0.0000358200
   0.0000275300    0.0000108600   -0.0000122800
  -0.0000196500   -0.0000411400    0.0000560700
   0.0000578900   -0.0000181400    0.0000249600
  -0.0000582200   -0.0000440400   -0.0000361500
   0.0000275400    0.0000110300    0.0000120300
  -0.0000195500   -0.0000414700   -0.0000562300
   0.0000576600   -0.0000182600   -0.0000249400
  -0.0000287800    0.0003039100    0.0000568100
   0.0000238100    0.0000145700   -0.0000216100
   0.0000099100   -0.0008924700   -0.0001975400
   0.0001433100    0.0000448400    0.0000668400
   0.0001465800    0.0000454200    0.0000680400
   0.0000167900   -0.0008941000   -0.0002109600
   0.0000261000    0.0000134400   -0.0000212400
  -0.0000293200    0.0003036800    0.0000581400
   0.0000606200   -0.0000181500   -0.0000256800
  -0.0000201700   -0.0000414800   -0.0000546200
   0.0000280900    0.0000110500    0.0000110300
  -0.0000592400   -0.0000440600   -0.0000355400
   0.0004402400    0.0004389500    0.0004570500
  -0.0000307600    0.0000114500    0.0000304300
  -0.0000339400    0.0000142300   -0.0000318900
   0.0004369900    0.0004348100   -0.0004522800
   0.0004403300    0.0004391000   -0.0004566800
  -0.0000308700    0.0000116800   -0.0000304500
  -0.0000339800    0.0000138500    0.0000319300
   0.0004375900    0.0004347100    0.0004523100
   0.0031094300   -0.0004212000    0.0000017000
   0.0030631500   -0.0004093000    0.0000015900
  -0.0000290000    0.0000259400   -0.0000002100
  -0.0000283300    0.0000258200   -0.0000004200
  -0.0000295300    0.0000046900   -0.0000003900
  -0.0000282000    0.0000060500    0.0000001300
   0.0000030400    0.0000101700    0.0000000300
   0.0000034100    0.0000091700    0.0000002500
  -0.0004010800    0.0031563400    0.0000014600
   0.0000065000   -0.0000092100   -0.0000004800
  -0.0003886100    0.0031082000    0.0000018900
   0.0000060600   -0.0000103500    0.0000003700
  -0.0000047800    0.0000004900    0.0000001500
  -0.0000000900   -0.0000198200    0.0000001200
  -0.0000036400    0.0000015300   -0.0000000800
  -0.0000011200   -0.0000199500   -0.0000006900
  -0.0003941800   -0.0003750500   -0.0000012300
   0.0000067200   -0.0000243600    0.0000008800
  -0.0000037700    0.0000086700   -0.0000002500
  -0.0000009800    0.0000013900    0.0000001100
  -0.0003946600   -0.0003747200    0.0000011800
   0.0000069000   -0.0000234300   -0.0000005600
  -0.0000041800    0.0000082800    0.0000002200
  -0.0000010300    0.0000005400    0.0000000600

33   
  0.0035355339059327   0.0035355339059327   0.0000000000000000
   0.0061506300    0.0052469000    0.0059213900
   0.0000790200   -0.0000212800   -0.0000012700
  -0.0000898200    0.0002440800   -0.0001257800
  -0.0000055000   -0.0000174300   -0.0000927100
   0.0000674500    0.0000488400    0.0001555800
   0.0000353700   -0.0000438600   -0.0000151200
  -0.0000217300   -0.0000060000    0.0000036600
  -0.0000084500   -0.0000284000   -0.0000290500
  -0.0002225900   -0.0006511300    0.0000252900
   0.0001249200    0.0000730000    0.0000879800
   0.0001256700    0.0001458300   -0.0002039400
   0.0000130900    0.0000250600    0.0000201600
  -0.0000311800   -0.0000264700    0.0000633300
  -0.0000255400    0.0000735000    0.0000359200
  -0.0000588000   -0.0000479600   -0.0000340700
   0.0000327400    0.0000058700    0.0000137000
  -0.0002488400   -0.0006350200   -0.0000613500
   0.0001266500    0.0000681300   -0.0000934200
   0.0001244000    0.0001490400    0.0002000500
   0.0000155100    0.0000283400   -0.0000259600
  -0.0000331900   -0.0000283800   -0.0000550600
  -0.0000228800    0.0000686300   -0.0000257100
  -0.0000600000   -0.0000443100    0.0000401500
   0.0000355800    0.0000093300   -0.0000050100
   0.0062364400    0.0053346400   -0.0060331000
   0.0000814300   -0.0000184600   -0.0000004200
  -0.0000902900    0.0002443700    0.0001240700
  -0.0000014200   -0.0000188700    0.0000887800
   0.0000664900    0.0000516100   -0.0001567300
   0.0000361700   -0.0000408200    0.0000142500
  -0.0000230600   -0.0000095200   -0.0000018300
  -0.0000072700   -0.0000309600    0.0000284000
  -0.0228755900   -0.0193102300   -0.0000073200
  -0.0005930100    0.0001143200   -0.0000013300
   0.0000215800   -0.0012681500   -0.0000006000
  -0.0000329400   -0.0000636000    0.0000004900
   0.0000206800    0.0000363000    0.0000015100
  -0.0000329000   -0.0000152800   -0.0000000100
   0.0000379600    0.0001286000   -0.0000000400
  -0.0000027200   -0.0000109000    0.0000002800
  -0.0002264600   -0.0003068500   -0.0002972900
   0.0000275400   -0.0001138300   -0.0000761200
   0.0000283200   -0.0001135600    0.0000750900
  -0.0002260000   -0.0003065400    0.0002952700
   0.0003273000    0.0001855900   -0.0002233400
   0.0000322200   -0.0000482400    0.0000370100
   0.0000329900   -0.0000489100   -0.0000380700
   0.0003208100    0.0001801200    0.0002178700
   0.0005106000    0.0003537800   -0.0003761000
  -0.0000365400   -0.0001923000    0.0000149000
  -0.0000354300   -0.0001943300   -0.0000173100
   0.0005006700    0.0003450100    0.0003759200
   0.0000024900    0.0000110000   -0.0000816100
  -0.0000210500   -0.0000114500    0.0000287300
  -0.0000203300   -0.0000116800   -0.0000280100
   0.0000019300    0.0000109200    0.0000832900
  -0.0005067100   -0.0004660400    0.0000060800
  -0.0000628600    0.0000272900   -0.0000001900
   0.0000396700   -0.0000099400   -0.0000003600
   0.0000278200    0.0000104600   -0.0000001600
  -0.0002176100   -0.0001764000   -0.0000092200
  -0.0000820900    0.0000078700    0.0000007000
   0.0000284500   -0.0000192900    0.0000004100
   0.0000251000    0.0000062800   -0.0000006300
   0.0004167500    0.0000463200    0.0004690100
   0.0004128500    0.0000455600   -0.0004661800
   0.0000182200    0.0000421200    0.0000657500
   0.0000173200    0.0000426000   -0.0000669800
   0.0000559300    0.0004057000   -0.0000760100
   0.0000544500    0.0004062200    0.0000740500
  -0.0000360100    0.0000956200    0.0000441800
  -0.0000367800    0.0000975300   -0.0000438700
  -0.0003617600    0.0001024600   -0.0001448100
  -0.0000734900   -0.0000256100    0.0000099000
  -0.0003610700    0.0000609600    0.0001446500
  -0.0000715400   -0.0000250200   -0.0000094800
   0.0000338500    0.0000016700    0.0000056800
   0.0000265700   -0.0000103000    0.0000019800
   0.0000333200    0.0000019700   -0.0000038600
   0.0000268600   -0.0000107200   -0.0000020600
  -0.0002004000    0.0002539100    0.0003650300
  -0.0000349300    0.0000393500    0.0000439300
  -0.0002017800    0.0002511600   -0.0003639900
  -0.0000347700    0.0000391400   -0.0000436000
   0.0001045100   -0.0000553300   -0.0000572900
   0.0000447900   -0.0000406900    0.0000361100
   0.0001067000   -0.0000539600    0.0000577200
   0.0000460200   -0.0000407400   -0.0000365300
   0.0002473700   -0.0002466000   -0.0003220200
   0.0002115000   -0.0002441200    0.0003190900
  -0.0000326200   -0.0000147500    0.0000269900
  -0.0000325800   -0.0000124200   -0.0000268200
  -0.0000324800   -0.0000572900    0.0000268000
  -0.0000324300   -0.0000574700   -0.0000248300
  -0.0000146700   -0.0000259600    0.0000572400
  -0.0000148000   -0.0000253700   -0.0000560900
   0.0055078000    0.0053320900    0.0058286300
  -0.0000444400    0.0000646600    0.0000521700
   0.0000525100   -0.0000415500   -0.0000020700
   0.0000326500    0.0000242100   -0.0000016200
   0.0000895800    0.0000617700    0.0000649200
  -0.0000036000    0.0000184100    0.0000017800
  -0.0000048600   -0.0000046200    0.0000015800
   0.0000038400   -0.0000267000   -0.0000098900
  -0.0004485800   -0.0002780500    0.0002029000
  -0.0000708900    0.0000399400    0.0000267100
   0.0000772100   -0.0001055200   -0.0000618000
  -0.0000274400   -0.0000186200   -0.0000069900
   0.0000409200    0.0000028900    0.0000012600
   0.0000100800    0.0000139400   -0.0000411400
   0.0000140100    0.0000341000    0.0000409000
  -0.0000277100    0.0000114100    0.0000273900
  -0.0004377400   -0.0002925200   -0.0001853200
  -0.0000695400    0.0000382200   -0.0000257400
   0.0000783900   -0.0001074000    0.0000607200
  -0.0000270300   -0.0000191900    0.0000078400
   0.0000393100    0.0000031200   -0.0000010700
   0.0000087800    0.0000127100    0.0000421800
   0.0000134000    0.0000332000   -0.0000407000
  -0.0000293400    0.0000102300   -0.0000265500
   0.0054014200    0.0052292900   -0.0056910500
  -0.0000472300    0.0000662400   -0.0000538400
   0.0000527200   -0.0000422400    0.0000027400
   0.0000314400    0.0000246200    0.0000007300
   0.0000907500    0.0000626700   -0.0000656500
  -0.0000054800    0.0000199900   -0.0000024400
  -0.0000038200   -0.0000057000   -0.0000018400
   0.0000030600   -0.0000258800    0.0000095400

33   
 -0.0035355339059327  -0.0035355339059327   0.0000000000000000
  -0.0062332200   -0.0053308600   -0.0060314200
  -0.0000847800    0.0000237400    0.0000013300
   0.0000938200   -0.0002471500    0.0001259100
  -0.0000018700    0.0000140500    0.0000911400
  -0.0000665000   -0.0000467700   -0.0001565100
  -0.0000348200    0.0000462600    0.0000117800
   0.0000231600    0.0000045700   -0.0000029700
   0.0000072500    0.0000255200    0.0000249000
   0.0002533100    0.0006352600   -0.0000561400
  -0.0001304900   -0.0000697300   -0.0000887600
  -0.0001232700   -0.0001499400    0.0002039300
  -0.0000156800   -0.0000268000   -0.0000231400
   0.0000362400    0.0000278900   -0.0000608900
   0.0000202500   -0.0000709700   -0.0000284300
   0.0000581600    0.0000443200    0.0000349800
  -0.0000343500   -0.0000067600   -0.0000073500
   0.0002232000    0.0006565300    0.0000274900
  -0.0001269000   -0.0000691600    0.0000933200
  -0.0001275300   -0.0001508400   -0.0002021600
  -0.0000127800   -0.0000286000    0.0000261900
   0.0000310800    0.0000321700    0.0000631300
   0.0000248100   -0.0000700600    0.0000282500
   0.0000566100    0.0000417400   -0.0000352800
  -0.0000310800   -0.0000091800    0.0000065400
  -0.0061497900   -0.0052472100    0.0059221000
  -0.0000812300    0.0000187200    0.0000008900
   0.0000907500   -0.0002436800   -0.0001238600
   0.0000038800    0.0000183600   -0.0000901300
  -0.0000702000   -0.0000483600    0.0001535900
  -0.0000334000    0.0000425200   -0.0000159800
   0.0000184900    0.0000052300   -0.0000004600
   0.0000107900    0.0000303300   -0.0000297400
   0.0228743600    0.0193088000   -0.0000205100
   0.0005954600   -0.0001142700    0.0000007800
  -0.0000202400    0.0012690800    0.0000016600
   0.0000326600    0.0000636400   -0.0000005800
  -0.0000203700   -0.0000372700    0.0000011300
   0.0000331600    0.0000148300    0.0000002800
  -0.0000363400   -0.0001268600   -0.0000002500
   0.0000044500    0.0000116200    0.0000004000
   0.0002251200    0.0003073200    0.0002958400
  -0.0000286200    0.0001121600    0.0000751200
  -0.0000289400    0.0001132400   -0.0000753600
   0.0002255200    0.0003071000   -0.0002961200
  -0.0003210300   -0.0001801500    0.0002174600
  -0.0000342100    0.0000485400   -0.0000387300
  -0.0000333000    0.0000478300    0.0000366500
  -0.0003266200   -0.0001841100   -0.0002226400
  -0.0005005500   -0.0003438600    0.0003764000
   0.0000340200    0.0001927900   -0.0000171400
   0.0000357100    0.0001911000    0.0000150800
  -0.0005101800   -0.0003518200   -0.0003772000
  -0.0000020500   -0.0000110900    0.0000827500
   0.0000192900    0.0000112100   -0.0000276300
   0.0000197100    0.0000112100    0.0000280800
  -0.0000034800   -0.0000113200   -0.0000822200
   0.0005075900    0.0004659200    0.0000072500
   0.0000627900   -0.0000273900    0.0000001000
  -0.0000363000    0.0000106900    0.0000000500
  -0.0000279000   -0.0000099300    0.0000005700
   0.0002177000    0.0001752100   -0.0000091700
   0.0000829300   -0.0000074500    0.0000001000
  -0.0000271400    0.0000200300   -0.0000000800
  -0.0000251000   -0.0000067700   -0.0000003200
  -0.0004131700   -0.0000458100   -0.0004647800
  -0.0004170400   -0.0000458600    0.0004687600
  -0.0000190000   -0.0000426500   -0.0000662400
  -0.0000195500   -0.0000413100    0.0000668300
  -0.0000546500   -0.0004060700    0.0000724000
  -0.0000563300   -0.0004065800   -0.0000747200
   0.0000365800   -0.0000970400   -0.0000438200
   0.0000351500   -0.0000959500    0.0000433600
   0.0003623100   -0.0000603100    0.0001472800
   0.0000716700    0.0000252400   -0.0000102800
   0.0003623300   -0.0001023500   -0.0001441000
   0.0000736000    0.0000252200    0.0000099000
  -0.0000320700   -0.0000022100   -0.0000037500
  -0.0000267200    0.0000106700   -0.0000016800
  -0.0000322500   -0.0000022600    0.0000051900
  -0.0000257800    0.0000100600    0.0000017400
   0.0002029000   -0.0002511400   -0.0003641900
   0.0000351300   -0.0000394400   -0.0000436200
   0.0002017400   -0.0002545000    0.0003661800
   0.0000360900   -0.0000395700    0.0000443300
  -0.0001062900    0.0000541200    0.0000571600
  -0.0000448700    0.0000412600   -0.0000361000
  -0.0001046100    0.0000556600   -0.0000565500
  -0.0000440100    0.0000403800    0.0000359700
  -0.0002114000    0.0002436300    0.0003217000
  -0.0002483600    0.0002456300   -0.0003208400
   0.0000325700    0.0000130200   -0.0000262200
   0.0000317400    0.0000152000    0.0000265900
   0.0000325700    0.0000569100   -0.0000251400
   0.0000319300    0.0000570300    0.0000267000
   0.0000137900    0.0000262400   -0.0000573600
   0.0000125900    0.0000269900    0.0000574100
  -0.0054018600   -0.0052291400   -0.0056913400
   0.0000457400   -0.0000656400   -0.0000524400
  -0.0000527000    0.0000412300    0.0000013800
  -0.0000320400   -0.0000239800    0.0000023300
  -0.0000904900   -0.0000629700   -0.0000660800
   0.0000043500   -0.0000192600   -0.0000025000
   0.0000041900    0.0000054600   -0.0000007700
  -0.0000031000    0.0000264200    0.0000097600
   0.0004371500    0.0002925800   -0.0001851200
   0.0000695100   -0.0000394400   -0.0000270600
  -0.0000773800    0.0001076800    0.0000618400
   0.0000263400    0.0000197000    0.0000068100
  -0.0000396600   -0.0000014600   -0.0000012700
  -0.0000100500   -0.0000141300    0.0000414400
  -0.0000142000   -0.0000339900   -0.0000410500
   0.0000287500   -0.0000102900   -0.0000267200
   0.0004506200    0.0002767700    0.0002027900
   0.0000697900   -0.0000396300    0.0000262300
  -0.0000763900    0.0001064200   -0.0000620600
   0.0000263900    0.0000190300   -0.0000072500
  -0.0000387500   -0.0000024700    0.0000011100
  -0.0000099100   -0.0000136300   -0.0000411500
  -0.0000144800   -0.0000346200    0.0000405600
   0.0000289300   -0.0000106500    0.0000267400
  -0.0055063700   -0.0053321900    0.0058278200
   0.0000447300   -0.0000649400    0.0000526700
  -0.0000507000    0.0000416900   -0.0000013600
  -0.0000331100   -0.0000244200   -0.0000019800
  -0.0000890200   -0.0000615900    0.0000661100
   0.0000040300   -0.0000186700    0.0000027700
   0.0000049400    0.0000049900    0.0000013200
  -0.0000038300    0.0000257600   -0.0000096300

97   
  0.0035355339059327   0.0035355339059327   0.0000000000000000
   0.0004142100    0.0004563200    0.0004781100
  -0.0000058700   -0.0000123300    0.0000090900
  -0.0000037100   -0.0000050700   -0.0000067800
   0.0004142900    0.0004657700   -0.0004817300
   0.0004152800    0.0004554600   -0.0004769300
  -0.0000051600   -0.0000130700   -0.0000103300
  -0.0000032400   -0.0000048100    0.0000068500
   0.0004147700    0.0004663600    0.0004794100
   0.0030639400   -0.0004046000    0.0000025800
   0.0031047000   -0.0004150900    0.0000022800
  -0.0000233400    0.0000267100    0.0000021300
  -0.0000269900    0.0000339900    0.0000020700
  -0.0000241100    0.0000104500   -0.0000019200
  -0.0000257800    0.0000081500    0.0000005100
   0.0000064100    0.0000074400   -0.0000030600
   0.0000050800    0.0000112800   -0.0000005600
  -0.0003869200    0.0031047400    0.0000016500
   0.0000087100   -0.0000086500    0.0000009500
  -0.0003986700    0.0031527500    0.0000027000
   0.0000151100   -0.0000038600    0.0000017900
  -0.0000038300    0.0000004200   -0.0000011900
   0.0000034100   -0.0000208800   -0.0000007900
  -0.0000080600    0.0000063900   -0.0000005600
   0.0000069800   -0.0000150300   -0.0000009500
  -0.0003905000   -0.0003676500    0.0000065900
   0.0000107400   -0.0000224800    0.0000010900
  -0.0000048800    0.0000110200    0.0000008200
   0.0000053400    0.0000034200    0.0000005000
  -0.0003926100   -0.0003671500   -0.0000070700
   0.0000121300   -0.0000217500   -0.0000014300
  -0.0000076800    0.0000108100   -0.0000004100
   0.0000057000    0.0000030100   -0.0000011100
   0.0052354600    0.0053942000    0.0058549900
  -0.0000411200    0.0000640500    0.0000516900
   0.0000981500   -0.0000832200    0.0000586100
   0.0000267300    0.0000347100   -0.0000265800
   0.0000966500    0.0000578700   -0.0000425300
   0.0000063700    0.0000110100    0.0000241100
  -0.0000123500    0.0000072600    0.0000105900
  -0.0000296200    0.0000106600    0.0000257700
   0.0053429300    0.0055006800    0.0059944700
  -0.0000438900    0.0000647600    0.0000516300
   0.0000981800   -0.0000849200    0.0000585800
   0.0000254000    0.0000346500   -0.0000269400
   0.0000970100    0.0000587200   -0.0000429100
   0.0000051300    0.0000105000    0.0000251700
  -0.0000128000    0.0000059800    0.0000119800
  -0.0000311600    0.0000094300    0.0000252400
   0.0053425200    0.0055004000   -0.0059946700
  -0.0000436600    0.0000646200   -0.0000514200
   0.0000977400   -0.0000849900   -0.0000590600
   0.0000254700    0.0000345600    0.0000267500
   0.0000971800    0.0000589900    0.0000430400
   0.0000051800    0.0000104000   -0.0000252200
  -0.0000128400    0.0000061000   -0.0000113400
  -0.0000306500    0.0000097100   -0.0000250100
   0.0052356500    0.0053937800   -0.0058551400
  -0.0000417900    0.0000642000   -0.0000515900
   0.0000985000   -0.0000835000   -0.0000585700
   0.0000261300    0.0000348200    0.0000269900
   0.0000975300    0.0000586600    0.0000427700
   0.0000058200    0.0000110100   -0.0000242000
  -0.0000118200    0.0000072000   -0.0000105400
  -0.0000300700    0.0000104200   -0.0000260800
  -0.0002819100   -0.0004420800   -0.0000351300
  -0.0000717600    0.0000418600   -0.0000288400
   0.0000348300   -0.0000601300   -0.0000070700
  -0.0000187500   -0.0000259800    0.0000116500
   0.0000359000    0.0000072700    0.0000192100
   0.0000010100    0.0000256200    0.0000358400
   0.0000267300    0.0000270400   -0.0000309900
   0.0000051200   -0.0000224400    0.0000080300
  -0.0002676700   -0.0004573400   -0.0000204900
  -0.0000697100    0.0000417900   -0.0000288300
   0.0000354300   -0.0000613700   -0.0000072700
  -0.0000187700   -0.0000248300    0.0000129800
   0.0000358300    0.0000074300    0.0000191600
   0.0000021600    0.0000251400    0.0000349300
   0.0000275600    0.0000265500   -0.0000317400
   0.0000061200   -0.0000236600    0.0000071900
  -0.0002679200   -0.0004568800    0.0000204300
  -0.0000696700    0.0000416400    0.0000291600
   0.0000348900   -0.0000610700    0.0000076500
  -0.0000185800   -0.0000250100   -0.0000125000
   0.0000361800    0.0000069700   -0.0000190100
   0.0000021100    0.0000250100   -0.0000352700
   0.0000278900    0.0000262200    0.0000314000
   0.0000063200   -0.0000233000   -0.0000075800
  -0.0002827200   -0.0004423400    0.0000346800
  -0.0000715300    0.0000417600    0.0000285800
   0.0000342500   -0.0000595000    0.0000068600
  -0.0000183100   -0.0000256200   -0.0000120700
   0.0000357900    0.0000070400   -0.0000186800
   0.0000014800    0.0000256300   -0.0000354700
   0.0000264900    0.0000269100    0.0000313000
   0.0000053300   -0.0000226100   -0.0000075700
  -0.0282753200   -0.0282605900   -0.0000023600
  -0.0001272700    0.0000394800   -0.0000019600
  -0.0000490700   -0.0000358100   -0.0000019500
   0.0000103900   -0.0000055200   -0.0000000300
  -0.0000501100   -0.0000474800    0.0000002600
   0.0000105800   -0.0000175500   -0.0000001600
  -0.0000037800    0.0000353700   -0.0000002200
  -0.0000001400    0.0000281500    0.0000001400
  -0.0000048600    0.0001694300    0.0001701400
   0.0000014200   -0.0000011300   -0.0000092100
  -0.0000075400    0.0001686700   -0.0001732400
   0.0000023800   -0.0000024200    0.0000089000
  -0.0000054100    0.0001691800   -0.0001698800
   0.0000021000   -0.0000009100    0.0000093700
  -0.0000077300    0.0001689100    0.0001731800
   0.0000031600   -0.0000025900   -0.0000088500
   0.0001992000   -0.0000713100    0.0001742400
   0.0001981600   -0.0000736700   -0.0001774400
   0.0000048100    0.0000358000    0.0000039300
   0.0000033500    0.0000370200   -0.0000046100
   0.0001985500   -0.0000713500   -0.0001746700
   0.0001979200   -0.0000736400    0.0001780000
   0.0000051500    0.0000354900   -0.0000037000
   0.0000029900    0.0000367700    0.0000047900
   0.0003716400    0.0003721300    0.0000005900
   0.0000222900    0.0000227600   -0.0000003100
   0.0000232400    0.0000215400    0.0000005900
   0.0003759900    0.0003764900   -0.0000000400
   0.0000094100    0.0000129300   -0.0000003600
  -0.0000017600    0.0000045200   -0.0000001400
   0.0000002200    0.0000031500   -0.0000004000
   0.0000085300    0.0000116600    0.0000000200
