 128
   1   1
     9.256825382181189     0.000000000000000    -0.000000000000000
     0.000000000000003     8.258124734996045    -0.000000000000000
     0.000000000000000    -0.000000000000000     8.258124734996045
   1   2
     0.029274220741123    -0.000000000000000    -0.000000000000000
     0.000000000000000    -0.005557859300126     0.000000000000000
    -0.000000000000000     0.000000000000000    -0.005557859300126
   1   3
     0.001793222797089     0.000000000000000    -0.000000000000000
     0.000000000000000     0.127330132301825    -0.000000000000000
    -0.000000000000000    -0.000000000000000     0.005348555692895
   1   4
     0.003586445594178     0.000000000000000    -0.000000000000000
     0.000000000000000     0.004055964496886     0.000000000000000
    -0.000000000000000    -0.000000000000000    -0.007048440394868
   1   5
     0.001793222797089     0.000000000000000    -0.000000000000000
     0.000000000000000     0.005348555692895    -0.000000000000000
    -0.000000000000000    -0.000000000000000     0.127330132301825
   1   6
     0.003586445594178    -0.000000000000000    -0.000000000000000
     0.000000000000000    -0.007048440394868    -0.000000000000000
    -0.000000000000000     0.000000000000000     0.004055964496886
   1   7
    -0.025501098956712    -0.000000000000000    -0.000000000000000
    -0.000000000000000    -0.010564175310927     0.000000000000000
     0.000000000000000     0.000000000000000    -0.010564175310927
   1   8
    -0.011918991903681    -0.000000000000000     0.000000000000000
    -0.000000000000000    -0.006929646455628     0.000000000000000
    -0.000000000000000     0.000000000000000    -0.006929646455628
   1   9
     0.031087949634867    -0.000000000000000    -0.000000000000000
     0.000000000000000    -0.042043862102571    -0.062517431845047
    -0.000000000000000    -0.062517431845047    -0.042043862102571
   1  10
    -0.008208802622795    -0.000000000000000    -0.000000000000000
    -0.000000000000000    -0.000803273303428    -0.006409922971456
    -0.000000000000000    -0.006409922971456    -0.000803273303428
   1  11
     0.031087949634867    -0.000000000000000    -0.000000000000000
     0.000000000000000    -0.042043862102571     0.062517431845047
     0.000000000000000     0.062517431845047    -0.042043862102571
   1  12
    -0.008208802622795    -0.000000000000000     0.000000000000000
    -0.000000000000000    -0.000803273303428     0.006409922971456
     0.000000000000000     0.006409922971456    -0.000803273303428
   1  13
     0.031087949634867    -0.000000000000000     0.000000000000000
     0.000000000000000    -0.042043862102571     0.062517431845047
    -0.000000000000000     0.062517431845047    -0.042043862102571
   1  14
    -0.008208802622795    -0.000000000000000     0.000000000000000
    -0.000000000000000    -0.000803273303428     0.006409922971456
    -0.000000000000000     0.006409922971456    -0.000803273303428
   1  15
     0.031087949634867    -0.000000000000000    -0.000000000000000
     0.000000000000000    -0.042043862102571    -0.062517431845047
    -0.000000000000000    -0.062517431845047    -0.042043862102571
   1  16
    -0.008208802622795     0.000000000000000    -0.000000000000000
    -0.000000000000000    -0.000803273303428    -0.006409922971456
     0.000000000000000    -0.006409922971456    -0.000803273303428
   1  17
    -0.079340562829647    -0.000000000000000    -0.105521191403079
    -0.000000000000000    -0.052460252096231    -0.000000000000000
    -0.105160213391283     0.000000000000000    -0.087146668140556
   1  18
    -0.079340562829647    -0.000000000000000     0.105521191403079
    -0.000000000000000    -0.052460252096231     0.000000000000000
     0.105160213391283     0.000000000000000    -0.087146668140556
   1  19
     0.001607960820418    -0.000000000000000    -0.003701350446121
     0.000000000000000    -0.023953949319476    -0.000000000000000
    -0.003588566914522     0.000000000000000     0.004108290398694
   1  20
     0.001607960820418    -0.000000000000000     0.003701350446121
     0.000000000000000    -0.023953949319476     0.000000000000000
     0.003588566914522     0.000000000000000     0.004108290398694
   1  21
    -0.079340562829647    -0.000000000000000     0.105521191403079
    -0.000000000000000    -0.052460252096231     0.000000000000000
     0.105160213391283     0.000000000000000    -0.087146668140556
   1  22
    -0.079340562829647    -0.000000000000000    -0.105521191403079
    -0.000000000000000    -0.052460252096231    -0.000000000000000
    -0.105160213391283     0.000000000000000    -0.087146668140556
   1  23
     0.001607960820418    -0.000000000000000     0.003701350446121
     0.000000000000000    -0.023953949319476     0.000000000000000
     0.003588566914522     0.000000000000000     0.004108290398694
   1  24
     0.001607960820418    -0.000000000000000    -0.003701350446121
     0.000000000000000    -0.023953949319476    -0.000000000000000
    -0.003588566914522     0.000000000000000     0.004108290398694
   1  25
    -0.079340562829647    -0.105521191403079    -0.000000000000000
    -0.105160213391283    -0.087146668140556     0.000000000000000
     0.000000000000000     0.000000000000000    -0.052460252096231
   1  26
    -0.079340562829647     0.105521191403079    -0.000000000000000
     0.105160213391283    -0.087146668140556     0.000000000000000
    -0.000000000000000     0.000000000000000    -0.052460252096231
   1  27
    -0.079340562829647     0.105521191403079    -0.000000000000000
     0.105160213391283    -0.087146668140556     0.000000000000000
    -0.000000000000000     0.000000000000000    -0.052460252096231
   1  28
    -0.079340562829647    -0.105521191403079    -0.000000000000000
    -0.105160213391283    -0.087146668140556     0.000000000000000
     0.000000000000000    -0.000000000000000    -0.052460252096231
   1  29
     0.001607960820418    -0.003701350446121     0.000000000000000
    -0.003588566914522     0.004108290398694     0.000000000000000
     0.000000000000000    -0.000000000000000    -0.023953949319476
   1  30
     0.001607960820418     0.003701350446121    -0.000000000000000
     0.003588566914522     0.004108290398694     0.000000000000000
    -0.000000000000000    -0.000000000000000    -0.023953949319476
   1  31
     0.001607960820418     0.003701350446121    -0.000000000000000
     0.003588566914522     0.004108290398694     0.000000000000000
    -0.000000000000000    -0.000000000000000    -0.023953949319476
   1  32
     0.001607960820418    -0.003701350446121    -0.000000000000000
    -0.003588566914522     0.004108290398694     0.000000000000000
     0.000000000000000    -0.000000000000000    -0.023953949319476
   1  33
    -0.842883657543045    -0.909188176531432    -0.909188176531432
    -0.839092150982322    -0.656472278799349    -0.851397223188531
    -0.839092150982322    -0.851397223188531    -0.656472278799348
   1  34
    -0.028293110082227     0.006432550388454     0.006432550388454
     0.012695041596033    -0.006318352643292    -0.012679485246847
     0.012695041596033    -0.012679485246847    -0.006318352643292
   1  35
    -0.005322215965296     0.030448194774588    -0.014111376478749
    -0.013548873034316    -0.055468284343398    -0.030360336757026
    -0.010934345710878     0.046113615181691    -0.002452246317155
   1  36
    -0.000681120606978     0.002406637929768    -0.008343860018001
     0.006353354428961    -0.001549624510970    -0.002278298048983
     0.016034706923577     0.009548416419753    -0.003196829757744
   1  37
    -0.005322215965296    -0.014111376478749     0.030448194774588
    -0.010934345710878    -0.002452246317155     0.046113615181691
    -0.013548873034316    -0.030360336757026    -0.055468284343398
   1  38
    -0.000681120606978    -0.008343860018001     0.002406637929768
     0.016034706923577    -0.003196829757744     0.009548416419753
     0.006353354428961    -0.002278298048983    -0.001549624510970
   1  39
     0.011020966291574    -0.005234004394343    -0.005234004394343
    -0.005560687727251     0.007203296779947     0.004892471819030
    -0.005560687727251     0.004892471819030     0.007203296779947
   1  40
    -0.002681348914259     0.005951894553943     0.005951894553943
     0.005192285094253     0.002865550230759     0.002655893070137
     0.005192285094253     0.002655893070137     0.002865550230759
   1  41
    -0.002681348914259     0.005951894553943     0.005951894553943
     0.005192285094253     0.002865550230759     0.002655893070137
     0.005192285094253     0.002655893070137     0.002865550230759
   1  42
     0.011020966291574    -0.005234004394343    -0.005234004394343
    -0.005560687727251     0.007203296779947     0.004892471819030
    -0.005560687727251     0.004892471819030     0.007203296779947
   1  43
    -0.000681120606978    -0.008343860018001     0.002406637929768
     0.016034706923577    -0.003196829757744     0.009548416419753
     0.006353354428961    -0.002278298048983    -0.001549624510970
   1  44
    -0.005322215965296    -0.014111376478749     0.030448194774588
    -0.010934345710878    -0.002452246317155     0.046113615181691
    -0.013548873034316    -0.030360336757026    -0.055468284343398
   1  45
    -0.000681120606978     0.002406637929768    -0.008343860018001
     0.006353354428961    -0.001549624510970    -0.002278298048983
     0.016034706923577     0.009548416419753    -0.003196829757744
   1  46
    -0.005322215965296     0.030448194774588    -0.014111376478749
    -0.013548873034316    -0.055468284343398    -0.030360336757026
    -0.010934345710878     0.046113615181691    -0.002452246317155
   1  47
    -0.028293110082227     0.006432550388454     0.006432550388454
     0.012695041596033    -0.006318352643292    -0.012679485246847
     0.012695041596033    -0.012679485246847    -0.006318352643292
   1  48
    -0.842883657543045    -0.909188176531432    -0.909188176531432
    -0.839092150982323    -0.656472278799349    -0.851397223188531
    -0.839092150982322    -0.851397223188531    -0.656472278799348
   1  49
    -0.000681120606978     0.002406637929768     0.008343860018001
     0.006353354428961    -0.001549624510970     0.002278298048983
    -0.016034706923577    -0.009548416419753    -0.003196829757744
   1  50
    -0.005322215965296     0.030448194774588     0.014111376478749
    -0.013548873034316    -0.055468284343398     0.030360336757026
     0.010934345710878    -0.046113615181691    -0.002452246317155
   1  51
    -0.028293110082227     0.006432550388454    -0.006432550388454
     0.012695041596033    -0.006318352643292     0.012679485246847
    -0.012695041596033     0.012679485246847    -0.006318352643292
   1  52
    -0.842883657543045    -0.909188176531432     0.909188176531432
    -0.839092150982322    -0.656472278799349     0.851397223188531
     0.839092150982322     0.851397223188531    -0.656472278799348
   1  53
    -0.002681348914259     0.005951894553943    -0.005951894553943
     0.005192285094253     0.002865550230759    -0.002655893070137
    -0.005192285094253    -0.002655893070137     0.002865550230759
   1  54
     0.011020966291574    -0.005234004394343     0.005234004394343
    -0.005560687727251     0.007203296779947    -0.004892471819030
     0.005560687727251    -0.004892471819030     0.007203296779947
   1  55
    -0.000681120606978    -0.008343860018001    -0.002406637929768
     0.016034706923577    -0.003196829757744    -0.009548416419753
    -0.006353354428961     0.002278298048983    -0.001549624510970
   1  56
    -0.005322215965296    -0.014111376478749    -0.030448194774588
    -0.010934345710878    -0.002452246317155    -0.046113615181691
     0.013548873034316     0.030360336757026    -0.055468284343398
   1  57
    -0.005322215965296    -0.014111376478749    -0.030448194774588
    -0.010934345710878    -0.002452246317155    -0.046113615181691
     0.013548873034316     0.030360336757026    -0.055468284343398
   1  58
    -0.000681120606978    -0.008343860018001    -0.002406637929768
     0.016034706923577    -0.003196829757744    -0.009548416419753
    -0.006353354428961     0.002278298048983    -0.001549624510970
   1  59
     0.011020966291574    -0.005234004394343     0.005234004394343
    -0.005560687727251     0.007203296779947    -0.004892471819030
     0.005560687727251    -0.004892471819030     0.007203296779947
   1  60
    -0.002681348914259     0.005951894553943    -0.005951894553943
     0.005192285094253     0.002865550230759    -0.002655893070137
    -0.005192285094253    -0.002655893070137     0.002865550230759
   1  61
    -0.842883657543045    -0.909188176531432     0.909188176531432
    -0.839092150982322    -0.656472278799349     0.851397223188531
     0.839092150982322     0.851397223188531    -0.656472278799348
   1  62
    -0.028293110082227     0.006432550388454    -0.006432550388454
     0.012695041596033    -0.006318352643292     0.012679485246847
    -0.012695041596033     0.012679485246847    -0.006318352643292
   1  63
    -0.005322215965296     0.030448194774588     0.014111376478749
    -0.013548873034316    -0.055468284343398     0.030360336757026
     0.010934345710878    -0.046113615181691    -0.002452246317155
   1  64
    -0.000681120606978     0.002406637929768     0.008343860018001
     0.006353354428961    -0.001549624510970     0.002278298048983
    -0.016034706923577    -0.009548416419753    -0.003196829757744
   1  65
    -0.000681120606978     0.008343860018001     0.002406637929768
    -0.016034706923577    -0.003196829757744    -0.009548416419753
     0.006353354428961     0.002278298048983    -0.001549624510970
   1  66
    -0.005322215965296     0.014111376478749     0.030448194774588
     0.010934345710878    -0.002452246317155    -0.046113615181691
    -0.013548873034316     0.030360336757026    -0.055468284343398
   1  67
    -0.002681348914259    -0.005951894553943     0.005951894553943
    -0.005192285094253     0.002865550230759    -0.002655893070137
     0.005192285094253    -0.002655893070137     0.002865550230759
   1  68
     0.011020966291574     0.005234004394343    -0.005234004394343
     0.005560687727251     0.007203296779947    -0.004892471819030
    -0.005560687727251    -0.004892471819030     0.007203296779947
   1  69
    -0.028293110082227    -0.006432550388454     0.006432550388454
    -0.012695041596033    -0.006318352643292     0.012679485246847
     0.012695041596033     0.012679485246847    -0.006318352643292
   1  70
    -0.842883657543045     0.909188176531432    -0.909188176531432
     0.839092150982322    -0.656472278799348     0.851397223188531
    -0.839092150982322     0.851397223188531    -0.656472278799348
   1  71
    -0.000681120606978    -0.002406637929768    -0.008343860018001
    -0.006353354428961    -0.001549624510970     0.002278298048983
     0.016034706923577    -0.009548416419753    -0.003196829757744
   1  72
    -0.005322215965296    -0.030448194774588    -0.014111376478749
     0.013548873034316    -0.055468284343398     0.030360336757026
    -0.010934345710878    -0.046113615181691    -0.002452246317155
   1  73
    -0.005322215965296    -0.030448194774588    -0.014111376478749
     0.013548873034316    -0.055468284343398     0.030360336757026
    -0.010934345710878    -0.046113615181691    -0.002452246317155
   1  74
    -0.000681120606978    -0.002406637929768    -0.008343860018001
    -0.006353354428961    -0.001549624510970     0.002278298048983
     0.016034706923577    -0.009548416419753    -0.003196829757744
   1  75
    -0.842883657543045     0.909188176531432    -0.909188176531432
     0.839092150982322    -0.656472278799348     0.851397223188531
    -0.839092150982322     0.851397223188531    -0.656472278799348
   1  76
    -0.028293110082227    -0.006432550388454     0.006432550388454
    -0.012695041596033    -0.006318352643292     0.012679485246847
     0.012695041596033     0.012679485246847    -0.006318352643292
   1  77
     0.011020966291574     0.005234004394343    -0.005234004394343
     0.005560687727251     0.007203296779947    -0.004892471819030
    -0.005560687727251    -0.004892471819030     0.007203296779947
   1  78
    -0.002681348914259    -0.005951894553943     0.005951894553943
    -0.005192285094253     0.002865550230759    -0.002655893070137
     0.005192285094253    -0.002655893070137     0.002865550230759
   1  79
    -0.005322215965296     0.014111376478749     0.030448194774588
     0.010934345710878    -0.002452246317155    -0.046113615181691
    -0.013548873034316     0.030360336757026    -0.055468284343398
   1  80
    -0.000681120606978     0.008343860018001     0.002406637929768
    -0.016034706923577    -0.003196829757744    -0.009548416419753
     0.006353354428961     0.002278298048983    -0.001549624510970
   1  81
     0.011020966291574     0.005234004394343     0.005234004394343
     0.005560687727251     0.007203296779947     0.004892471819030
     0.005560687727251     0.004892471819030     0.007203296779947
   1  82
    -0.002681348914259    -0.005951894553943    -0.005951894553943
    -0.005192285094253     0.002865550230759     0.002655893070137
    -0.005192285094253     0.002655893070137     0.002865550230759
   1  83
    -0.005322215965296     0.014111376478749    -0.030448194774588
     0.010934345710878    -0.002452246317155     0.046113615181691
     0.013548873034316    -0.030360336757026    -0.055468284343398
   1  84
    -0.000681120606978     0.008343860018001    -0.002406637929768
    -0.016034706923577    -0.003196829757744     0.009548416419753
    -0.006353354428961    -0.002278298048983    -0.001549624510970
   1  85
    -0.005322215965296    -0.030448194774588     0.014111376478749
     0.013548873034316    -0.055468284343398    -0.030360336757026
     0.010934345710878     0.046113615181691    -0.002452246317155
   1  86
    -0.000681120606978    -0.002406637929768     0.008343860018001
    -0.006353354428961    -0.001549624510970    -0.002278298048983
    -0.016034706923577     0.009548416419753    -0.003196829757744
   1  87
    -0.842883657543045     0.909188176531432     0.909188176531432
     0.839092150982322    -0.656472278799348    -0.851397223188531
     0.839092150982322    -0.851397223188531    -0.656472278799348
   1  88
    -0.028293110082227    -0.006432550388454    -0.006432550388454
    -0.012695041596033    -0.006318352643292    -0.012679485246847
    -0.012695041596033    -0.012679485246847    -0.006318352643292
   1  89
    -0.028293110082227    -0.006432550388454    -0.006432550388454
    -0.012695041596033    -0.006318352643292    -0.012679485246847
    -0.012695041596033    -0.012679485246847    -0.006318352643292
   1  90
    -0.842883657543045     0.909188176531432     0.909188176531432
     0.839092150982322    -0.656472278799348    -0.851397223188531
     0.839092150982322    -0.851397223188531    -0.656472278799348
   1  91
    -0.000681120606978    -0.002406637929768     0.008343860018001
    -0.006353354428961    -0.001549624510970    -0.002278298048983
    -0.016034706923577     0.009548416419753    -0.003196829757744
   1  92
    -0.005322215965296    -0.030448194774588     0.014111376478749
     0.013548873034316    -0.055468284343398    -0.030360336757026
     0.010934345710878     0.046113615181691    -0.002452246317155
   1  93
    -0.000681120606978     0.008343860018001    -0.002406637929768
    -0.016034706923577    -0.003196829757744     0.009548416419753
    -0.006353354428961    -0.002278298048983    -0.001549624510970
   1  94
    -0.005322215965296     0.014111376478749    -0.030448194774588
     0.010934345710878    -0.002452246317155     0.046113615181691
     0.013548873034316    -0.030360336757026    -0.055468284343398
   1  95
    -0.002681348914259    -0.005951894553943    -0.005951894553943
    -0.005192285094253     0.002865550230759     0.002655893070137
    -0.005192285094253     0.002655893070137     0.002865550230759
   1  96
     0.011020966291574     0.005234004394343     0.005234004394343
     0.005560687727251     0.007203296779947     0.004892471819030
     0.005560687727251     0.004892471819030     0.007203296779947
   1  97
    -0.057473639174843    -0.059926946152170    -0.059926946152170
    -0.066634207525115    -0.063596476793138    -0.068696130899055
    -0.066634207525115    -0.068696130899055    -0.063596476793138
   1  98
    -0.057473639174843     0.059926946152170     0.059926946152170
     0.066634207525115    -0.063596476793138    -0.068696130899055
     0.066634207525115    -0.068696130899055    -0.063596476793138
   1  99
    -0.057473639174843     0.059926946152170    -0.059926946152170
     0.066634207525115    -0.063596476793138     0.068696130899055
    -0.066634207525115     0.068696130899055    -0.063596476793138
   1 100
    -0.057473639174843    -0.059926946152170     0.059926946152170
    -0.066634207525115    -0.063596476793138     0.068696130899055
     0.066634207525115     0.068696130899055    -0.063596476793138
   1 101
    -0.057473639174843    -0.059926946152170     0.059926946152170
    -0.066634207525115    -0.063596476793138     0.068696130899055
     0.066634207525115     0.068696130899055    -0.063596476793138
   1 102
    -0.057473639174843     0.059926946152170    -0.059926946152170
     0.066634207525115    -0.063596476793138     0.068696130899055
    -0.066634207525115     0.068696130899055    -0.063596476793138
   1 103
    -0.057473639174843     0.059926946152170     0.059926946152170
     0.066634207525115    -0.063596476793138    -0.068696130899055
     0.066634207525115    -0.068696130899055    -0.063596476793138
   1 104
    -0.057473639174843    -0.059926946152170    -0.059926946152170
    -0.066634207525115    -0.063596476793138    -0.068696130899055
    -0.066634207525115    -0.068696130899055    -0.063596476793138
   1 105
    -0.872934635083302     0.000000000000000    -0.000000000000000
    -0.000000000000000     0.117450436355087    -0.000000000000000
    -0.000000000000000    -0.000000000000000     0.117450436355087
   1 106
    -0.872934635083302     0.000000000000000    -0.000000000000000
    -0.000000000000000     0.117450436355087    -0.000000000000000
    -0.000000000000000    -0.000000000000000     0.117450436355087
   1 107
     0.008135970624333    -0.000000000000000    -0.000000000000000
     0.000000000000000    -0.007319969398843     0.000000000000000
    -0.000000000000000     0.000000000000000    -0.001518865365989
   1 108
     0.008135970624333    -0.000000000000000    -0.000000000000000
     0.000000000000000    -0.007319969398843     0.000000000000000
    -0.000000000000000     0.000000000000000    -0.001518865365989
   1 109
     0.008135970624333    -0.000000000000000    -0.000000000000000
     0.000000000000000    -0.001518865365989     0.000000000000000
     0.000000000000000     0.000000000000000    -0.007319969398843
   1 110
     0.008135970624333    -0.000000000000000    -0.000000000000000
     0.000000000000000    -0.001518865365989     0.000000000000000
     0.000000000000000     0.000000000000000    -0.007319969398843
   1 111
    -0.000912167747731    -0.000000000000000    -0.000000000000000
    -0.000000000000000    -0.002735089029630     0.000000000000000
    -0.000000000000000     0.000000000000000    -0.002735089029630
   1 112
    -0.000912167747731    -0.000000000000000    -0.000000000000000
    -0.000000000000000    -0.002735089029630     0.000000000000000
    -0.000000000000000     0.000000000000000    -0.002735089029630
   1 113
     0.111618926730641    -0.000000000000000    -0.000000000000000
     0.000000000000000    -0.885939743002885    -0.000000000000000
    -0.000000000000000     0.000000000000000     0.106033490266049
   1 114
    -0.001851205553146     0.000000000000000    -0.000000000000000
    -0.000000000000000     0.002766201728002    -0.000000000000000
    -0.000000000000000    -0.000000000000000     0.006758526614581
   1 115
     0.111618926730641    -0.000000000000000    -0.000000000000000
     0.000000000000000    -0.885939743002885    -0.000000000000000
    -0.000000000000000     0.000000000000000     0.106033490266049
   1 116
    -0.001851205553146     0.000000000000000    -0.000000000000000
    -0.000000000000000     0.002766201728002    -0.000000000000000
    -0.000000000000000    -0.000000000000000     0.006758526614581
   1 117
     0.001157533800802    -0.000000000000000    -0.000000000000000
     0.000000000000000    -0.000285671139599     0.000000000000000
    -0.000000000000000    -0.000000000000000    -0.002397091988222
   1 118
     0.000227688383542     0.000000000000000    -0.000000000000000
     0.000000000000000     0.005624327337558     0.000000000000000
     0.000000000000000    -0.000000000000000    -0.000272943217538
   1 119
     0.001157533800802    -0.000000000000000    -0.000000000000000
     0.000000000000000    -0.000285671139599     0.000000000000000
    -0.000000000000000     0.000000000000000    -0.002397091988222
   1 120
     0.000227688383542     0.000000000000000     0.000000000000000
     0.000000000000000     0.005624327337558     0.000000000000000
    -0.000000000000000    -0.000000000000000    -0.000272943217538
   1 121
     0.111618926730641     0.000000000000000    -0.000000000000000
     0.000000000000000     0.106033490266049     0.000000000000000
     0.000000000000000    -0.000000000000000    -0.885939743002885
   1 122
    -0.001851205553146     0.000000000000000    -0.000000000000000
    -0.000000000000000     0.006758526614581    -0.000000000000000
    -0.000000000000000    -0.000000000000000     0.002766201728002
   1 123
     0.001157533800802    -0.000000000000000     0.000000000000000
     0.000000000000000    -0.002397091988222     0.000000000000000
    -0.000000000000000     0.000000000000000    -0.000285671139599
   1 124
     0.000227688383542    -0.000000000000000    -0.000000000000000
     0.000000000000000    -0.000272943217538    -0.000000000000000
     0.000000000000000    -0.000000000000000     0.005624327337558
   1 125
     0.111618926730641     0.000000000000000    -0.000000000000000
     0.000000000000000     0.106033490266049     0.000000000000000
     0.000000000000000    -0.000000000000000    -0.885939743002885
   1 126
    -0.001851205553146     0.000000000000000    -0.000000000000000
    -0.000000000000000     0.006758526614581    -0.000000000000000
    -0.000000000000000    -0.000000000000000     0.002766201728002
   1 127
     0.001157533800802    -0.000000000000000    -0.000000000000000
     0.000000000000000    -0.002397091988222     0.000000000000000
     0.000000000000000     0.000000000000000    -0.000285671139599
   1 128
     0.000227688383542    -0.000000000000000    -0.000000000000000
     0.000000000000000    -0.000272943217538    -0.000000000000000
     0.000000000000000     0.000000000000000     0.005624327337558
   2   1
     0.029274220741123    -0.000000000000000     0.000000000000000
     0.000000000000000    -0.005557859300126    -0.000000000000000
     0.000000000000000    -0.000000000000000    -0.005557859300126
   2   2
     9.256825382181189     0.000000000000000     0.000000000000000
     0.000000000000003     8.258124734996045     0.000000000000000
    -0.000000000000000     0.000000000000000     8.258124734996045
   2   3
     0.003586445594178     0.000000000000000     0.000000000000000
     0.000000000000000     0.004055964496886    -0.000000000000000
     0.000000000000000     0.000000000000000    -0.007048440394868
   2   4
     0.001793222797089     0.000000000000000     0.000000000000000
     0.000000000000000     0.127330132301825     0.000000000000000
     0.000000000000000     0.000000000000000     0.005348555692895
   2   5
     0.003586445594178    -0.000000000000000     0.000000000000000
     0.000000000000000    -0.007048440394868     0.000000000000000
     0.000000000000000    -0.000000000000000     0.004055964496886
   2   6
     0.001793222797089     0.000000000000000     0.000000000000000
     0.000000000000000     0.005348555692895     0.000000000000000
     0.000000000000000     0.000000000000000     0.127330132301825
   2   7
    -0.011918991903681    -0.000000000000000    -0.000000000000000
    -0.000000000000000    -0.006929646455628    -0.000000000000000
     0.000000000000000    -0.000000000000000    -0.006929646455628
   2   8
    -0.025501098956712    -0.000000000000000     0.000000000000000
    -0.000000000000000    -0.010564175310927    -0.000000000000000
    -0.000000000000000    -0.000000000000000    -0.010564175310927
   2   9
    -0.008208802622795    -0.000000000000000    -0.000000000000000
    -0.000000000000000    -0.000803273303428    -0.006409922971456
     0.000000000000000    -0.006409922971456    -0.000803273303428
   2  10
     0.031087949634867    -0.000000000000000    -0.000000000000000
     0.000000000000000    -0.042043862102571    -0.062517431845047
     0.000000000000000    -0.062517431845047    -0.042043862102571
   2  11
    -0.008208802622795     0.000000000000000     0.000000000000000
    -0.000000000000000    -0.000803273303428     0.006409922971456
    -0.000000000000000     0.006409922971456    -0.000803273303428
   2  12
     0.031087949634867    -0.000000000000000     0.000000000000000
     0.000000000000000    -0.042043862102571     0.062517431845047
     0.000000000000000     0.062517431845047    -0.042043862102571
   2  13
    -0.008208802622795    -0.000000000000000     0.000000000000000
    -0.000000000000000    -0.000803273303428     0.006409922971456
     0.000000000000000     0.006409922971456    -0.000803273303428
   2  14
     0.031087949634867    -0.000000000000000     0.000000000000000
     0.000000000000000    -0.042043862102571     0.062517431845047
     0.000000000000000     0.062517431845047    -0.042043862102571
   2  15
    -0.008208802622795    -0.000000000000000    -0.000000000000000
    -0.000000000000000    -0.000803273303428    -0.006409922971456